# vtk DataFile Version 5.1
vtk output
ASCII
DATASET UNSTRUCTURED_GRID
POINTS 3344 double
0 0.4 0 0 0 0 1.5 0 0 
1.5 0.4 0 0.35337603096 0.28075508322 0 0.53354431043 0.2 0 
0.36950933921 0.14718862635 0 0.75 0 0 0.75 0.4 0 
0.375 0 0 0.375 0.4 0 1.125 0.4 0 
1.125 0 0 0.9375 0.2 0 1.5 0.2 0 
0 0.2 0 1.2591666667 0.2 0 0.73708333333 0.2 0 
0.1875 0 0 1.3125 0 0 0.9375 0.4 0 
0.9375 0 0 0.1875 0.4 0 0.5625 0.4 0 
0.5625 0 0 1.3125 0.4 0 0.18668931741 0.18713061007 0 
1.0983333333 0.162890625 0 1.03125 0.3 0 1.3795833333 0.125 0 
1.3795833333 0.275 0 0.84375 0.3 0 0.84375 0.1 0 
0 0.3 0 0.65625 0.094362413194 0 0.65625 0.30563758681 0 
0 0.1 0 0.09375 0 0 0.46875 0 0 
1.1568492758 0.27636381972 0 1.1985416667 0.095667534722 0 0.46875 0.4 0 
0.4434601707 0.24037754161 0 0.4395750651 0.16974642121 0 0.2620916412 0.093890205104 0 
1.03125 0 0 1.0009133526 0.10775235279 0 0.12371978177 0.29380665918 0 
0.23868811192 0.28974793581 0 0.515625 0.095309590153 0 0.140625 0.093363990334 0 
1.279375 0.30172222222 0 0.63531382188 0.1941280851 0 0.52572234834 0.30322853143 0 
0.83729166667 0.2 0 1.5 0.1 0 1.5 0.3 0 
0.28560040194 0.20149307681 0 0.75010011611 0.30614854636 0 0.74971718809 0.10658722285 0 
0.09375 0.4 0 0.28125 0 0 0.65625 0.4 0 
0.65625 0 0 0.84375 0 0 0.84375 0.4 0 
0.9375 0.3060546875 0 1.40625 0 0 1.21875 0 0 
1.03125 0.4 0 1.40625 0.4 0 0.28125 0.4 0 
1.21875 0.4 0 0.092092743041 0.17540443787 0 1.2921243901 0.091435605085 0 
0.421875 0.075445328497 0 0.42719510855 0.32476913115 0 1.1799483236 0.17625173611 0 
1.0249562433 0.21195508445 0 1.0827919096 0.076718253949 0 0.92347031903 0.080792486586 0 
0.059511937295 0.25 0 0.58102088457 0.13799490059 0 0.58783095314 0.25602408924 0 
1.4164352653 0.2 0 1.337800966 0.20791608796 0 0.33969630194 0.072379769922 0 
1.094566204 0.23665763106 0 1.3553075027 0.057527334658 0 1.359375 0.34465555556 0 
1.4314250123 0.32779938517 0 0.069092508572 0.070828914286 0 0.29951024232 0.32960942333 0 
0.58016449242 0.067869506856 0 1.171875 0.34615487228 0 1.0992158018 0.33022737334 0 
0.79363927437 0.25302776735 0 0.88739583333 0.24697265625 0 0.89661733027 0.14438219037 0 
1.4311023111 0.070646270818 0 0.79323903797 0.053408714398 0 0.063727003094 0.3342012471 0 
0.35929509155 0.23175162165 0 0.39841810083 0.26056631242 0 0.703125 0.047181206597 0 
0.70343581618 0.25799851149 0 0.609375 0.3528187934 0 0.69689788859 0.14700427678 0 
0.70291957464 0.3528187934 0 0.984375 0.35302734375 0 0.88759134928 0.35 0 
0.796875 0.35312422372 0 1.4453436092 0.26075814355 0 1.5 0.15 0 
0.97479651275 0.25302734375 0 0.7871875 0.15921573084 0 1.2241596296 0.25982299006 0 
1.3208257215 0.14737671671 0 0.97807082787 0.048659533287 0 0.140625 0.4 0 
0.18257824594 0.33070600915 0 0.17990737851 0.25505040513 0 1.4387582479 0.14247763358 0 
0.11910336085 0.2316146328 0 0.20123633154 0.12178594423 0 0.19273444758 0.061077240462 0 
0.36830253544 0.33963141126 0 1.1448123569 0.060870108523 0 1.1462667544 0.12604318576 0 
1.2473029602 0.13711363241 0 0.24121030689 0.35211562623 0 0.3128884609 0.12640832286 0 
0.053024228732 0.12918004134 0 0.23155673728 0.22590921248 0 1.265625 0 0 
1.2436318106 0.055931711478 0 1.2232929773 0.31829647016 0 1.265625 0.4 0 
0.140625 0 0 0.24042975456 0.16480273419 0 0.29486476583 0.27036459237 0 
0.890625 0 0 0.64731106946 0.24959573275 0 0.515625 0.4 0 
0.4828279225 0.34313168355 0 0.98670587638 0.16590556661 0 1.0547501329 0.12626332012 0 
1.2942619027 0.24589633695 0 0.87472896529 0.053535061854 0 0.469777843 0.28921303474 0 
0.48850224056 0.22018877081 0 0.48655968776 0.1848732106 0 1.0325441752 0.054803452727 0 
0.234375 0 0 0.13134573554 0.34703492719 0 0.46211223882 0.11670457945 0 
0.52852740184 0.14697993574 0 0.5319873477 0.044175105743 0 0.47494618087 0.056134391234 0 
0.94799959373 0.1286154968 0 0.328125 0.4 0 1.1479677617 0.22159368642 0 
0.14323205764 0.15028145032 0 0.1171875 0.046681995167 0 1.332329537 0.29905 0 
1.2890625 0.35317836309 0 0.55631288733 0.34697704812 0 0.53584433027 0.25208489348 0 
0.609375 0 0 0.6328125 0.047181206597 0 0.64600028028 0.14429107473 0 
0.68551885974 0.20884462118 0 0.58486308835 0.20458632917 0 0.83654888308 0.14974347821 0 
0.88739583333 0.19399518571 0 0 0.25 0 1.5 0.25 0 
1.5 0.05 0 0 0.05 0 0 0.15 0 
0 0.35 0 1.5 0.35 0 1.0497174271 0.35 0 
0.36440221538 0.189470124 0 1.453125 0.4 0 0.60615241366 0.30274112805 0 
0.046875 0 0 1.453125 0 0 0.2578125 0.044117303016 0 
1.1936503054 0.044666186763 0 0.40454220215 0.15846752378 0 0.043213337834 0.17709453931 0 
0.09617106897 0.10967354031 0 1.1957711669 0.22136112824 0 0.70301035198 0.10027023495 0 
0.79653842678 0.10050759262 0 0.79067203801 0.20610396079 0 0.84032223646 0.24697594257 0 
0.89061869959 0.30312489849 0 0.98456459701 0.3059630394 0 0.9345585481 0.35302734375 0 
0.70318028298 0.30493338198 0 0.74994916471 0.35307416555 0 0.79672035516 0.29995639759 0 
0.234375 0.4 0 0.984375 0 0 0.890625 0.4 0 
0.984375 0.4 0 0.703125 0.4 0 0.609375 0.4 0 
0.046875 0.4 0 0.796875 0 0 1.171875 0.4 0 
1.359375 0 0 0.328125 0 0 1.078125 0 0 
0.515625 0 0 0.421875 0.4 0 0.421875 0 0 
1.359375 0.4 0 0.703125 0 0 0.796875 0.4 0 
1.171875 0 0 1.078125 0.4 0 1.108919463 0.28284479294 0 
1.290311315 0.043043513355 0 1.3377102842 0.10338051151 0 0.65614728732 0.35241153437 0 
1.3741259379 0.17423530681 0 1.2421875 0.36032513294 0 0.74225303237 0.15155479646 0 
0.84233570642 0.35453927015 0 1.0522906752 0.17343355157 0 0.74882330254 0.26069873999 0 
0.74748626212 0.060362785836 0 1.3391326041 0.25396928741 0 1.0490534999 0.25447993633 0 
0.38174886852 0.048091491799 0 0.39949638212 0.11409368421 0 0.98105729189 0.20950829804 0 
0.93152335996 0.24383346763 0 1.1017855275 0.11778035755 0 1.1015625 0.037075329885 0 
0.61073904115 0.1025640475 0 0.30475947303 0.040850262885 0 0.14309934043 0.1944877372 0 
0.39031626024 0.30274835109 0 0.078409425307 0.29126012809 0 1.4582176326 0.18312200809 0 
1.4068220072 0.24183020415 0 0.4451452693 0.36384206012 0 1.2237568286 0.17411792861 0 
1.1866427969 0.13535922538 0 1.1374020618 0.18019226006 0 0.91552182683 0.037797848409 0 
0.27128497205 0.13546335143 0 0.96352198355 0.090451529969 0 0.88436211537 0.093517217856 0 
1.4666922218 0.225 0 0.83400276338 0.041371183619 0 0.32142020551 0.17201004343 0 
0.081389436173 0.21514247254 0 1.2395834691 0.096788750111 0 1.2811259749 0.16329506289 0 
0.3984375 0.36684396411 0 0.30206922247 0.087375020163 0 0.35051554037 0.11141307261 0 
0.56596570141 0.30765819094 0 0.1640625 0.032771564692 0 0.31594052477 0.23247068912 0 
1.0694863183 0.28871310643 0 1.2982281926 0.20649727656 0 0.039923853849 0.30208181167 0 
1.1403141329 0.31643678176 0 1.0219622612 0.14820299307 0 1.1839405906 0.30704418631 0 
0.60401827266 0.17007455167 0 0.5596177722 0.17078546605 0 0.55709097307 0.10321921366 0 
0.029755968648 0.225 0 0.25821677787 0.25524872172 0 0.4453125 0.030996225648 0 
0.16583724268 0.36671685923 0 0.61589330292 0.22735988409 0 1.3898992903 0.083185041747 0 
1.3944645483 0.040882926398 0 1.3775034068 0.21430669823 0 0.43305177485 0.27749577811 0 
1.4200067081 0.10815253764 0 1.4595319757 0.09945107047 0 0.20414624046 0.36262947445 0 
0.23021541622 0.071560312702 0 1.4296875 0.36768288376 0 1.064470751 0.21103525579 0 
0.33049678598 0.358024397 0 0.5037416436 0.27230481403 0 0.16493659442 0.29345386503 0 
0.66814954654 0.17510474511 0 0.038028710644 0.093662749584 0 0.081421254286 0.035414457143 0 
0.040402644305 0.040987967983 0 1.0361315766 0.092868831488 0 1.1015625 0.36901069786 0 
1.0116833808 0.2661056119 0 1.4597025901 0.040806165552 0 1.4702124227 0.325 0 
1.4172297389 0.28988681172 0 1.3918392432 0.32100734583 0 1.3917063079 0.36479500279 0 
1.1353390542 0.35333835909 0 0.2109375 0.028754278903 0 0.5977168836 0.035203178426 0 
1.1051676582 0.20021933272 0 0.2015103948 0.28559164151 0 0.51877299005 0.36029297386 0 
0.34574203835 0.034298409541 0 0.49738580149 0.12731010694 0 0.27840357293 0.36169783737 0 
0.27427334601 0.30178374152 0 0.32010166215 0.29819027418 0 1.2823947029 0.12671783994 0 
1.1276362085 0.25170451024 0 1.3359375 0.37232777778 0 1.465385826 0.36099690014 0 
0.10063840701 0.32427391653 0 0.096415108855 0.36206608809 0 0.10266248336 0.26410236269 0 
0.93027879328 0.16247345013 0 1.0078125 0.027774627624 0 0.91579969754 0.27674145126 0 
1.409279057 0.16413017861 0 1.2075567773 0.35063234857 0 0.47115889656 0.15217711852 0 
1.3218405044 0.070986857513 0 1.3359375 0.027250305008 0 1.2620610992 0.267207319 0 
0.23611498728 0.12937066649 0 1.1180306542 0.085342159094 0 1.0641818097 0.034760089038 0 
0.43143630215 0.13497942893 0 0.16977734959 0.21974040658 0 0.82021061429 0.32647221139 0 
1.3226090098 0.33563672768 0 1.0113076497 0.32960330698 0 0.37433033865 0.083796006521 0 
0.66796875 0.03523329847 0 0.21906382376 0.32177640128 0 1.2567973457 0.32849562154 0 
0.49947192251 0.031100898161 0 1.2320541178 0.22428851162 0 1.1916864199 0.27290323782 0 
0.8649225718 0.12845802245 0 0.91570472693 0.11497785355 0 1.451853306 0.29517259992 0 
0.76116972524 0.22682606686 0 0.81987493286 0.075207810544 0 0.7734375 0.025232542142 0 
0.8651585067 0.22048392098 0 0.86887506755 0.27620426791 0 0.82020189183 0.27484926782 0 
0.036892495705 0.36238594153 0 0.14264388912 0.26113460285 0 0.55716993927 0.22504994458 0 
0.47411789721 0.25536505551 0 0.28695128812 0.1666335255 0 1.1714132712 0.24589694615 0 
0.8596517769 0.17453577104 0 1.4296875 0.024711123257 0 0.63256029434 0.28068237551 0 
0.71499254951 0.22594362005 0 0.67935576446 0.28133554041 0 0.17720143654 0.09420221439 0 
0.17972885286 0.15128951374 0 0.2134808023 0.25421355281 0 1.1624232285 0.032248808308 0 
0.90768687359 0.22048392098 0 0.71715791473 0.17337527577 0 0.67668916798 0.12059437398 0 
0.62991971793 0.32635418222 0 0.7265625 0.023590603299 0 0.67655648665 0.067661116857 0 
0.6328125 0.3764093967 0 0.5859375 0.3764093967 0 0.86561864545 0.3250456206 0 
[...]
POINT_DATA 3344
SCALARS u double
LOOKUP_TABLE default
8.2730046772e-17 -5.0415401021e-19 -5.0417445107e-19 8.2724935811e-17 -3.7388130525e-18 -2.1979793245e-16 -4.4756392406e-16 -5.2551978419e-19 7.6275481993e-17 
9.2238709292e-18 3.388345741e-16 8.4471196084e-17 -1.4937307149e-18 0.30001896661 0.29999999477 0.3 0.30000024884 0.29396697231 
4.3355006622e-18 -2.7230684933e-18 -1.5912968852e-18 -3.8691559859e-19 8.738224896e-17 -8.5615313224e-19 -5.5466997654e-18 -8.4143276361e-17 0.26552942079 
0.28961897593 0.22507117661 0.25780125939 0.25782373195 0.22201949212 0.22837684324 0.225 0.25583170569 0.20150148344 
0.225 -6.4587877639e-19 -1.9202389801e-18 0.25636007714 0.21827514526 -1.3475787682e-18 8.103606749e-17 -5.8041909293e-18 0.29399739698 
-6.486566078e-19 0.23621427869 0.23191187268 0.22690474833 0.36407916422 0.22772277467 0.2224353461 0.25953525576 0.24452967239 
0.2994923379 0.22500047106 0.22499953272 0.12503447878 0.20684557621 0.24643422994 -1.2052657949e-18 5.576471107e-18 7.9264321773e-17 
-3.1304045765e-19 -1.187439079e-18 -1.9527398752e-18 0.21509313595 -3.7680068361e-19 -7.0073049481e-19 -4.7518573616e-19 -1.2818439795e-17 1.9198623168e-16 
-8.5810208372e-17 0.29213726162 0.21156730019 0.43768561896 0.32515695756 0.29574128338 0.29894606475 0.18586075604 0.1941221953 
0.27937530747 0.29111130063 0.20904249356 0.29999999356 0.29953254274 0.40506463669 0.2899837193 0.14774774248 0.14307348076 
0.17750920623 0.17786696728 0.29131764994 0.26823615683 0.13987986582 0.17294534763 0.27361598715 0.28232579659 0.27787295823 
0.17450281443 0.14463080406 0.16529315113 9.7986616413e-20 -9.74162917e-17 0.14477883414 0.25682558326 0.13347380427 0.28604423393 
0.118973907 0.12436403102 0.13026430985 0.12073898456 0.2723167069 0.28124972077 0.27874900184 0.29028262158 0.27321056349 
0.27921261857 0.12820834486 8.3815960546e-17 0.18520415733 0.25211827573 0.27518012605 0.28237706181 0.26668313051 0.19188901489 
0.37385658424 0.15470542419 0.25887998631 0.27029603694 0.18002209085 0.28348804713 0.26319200371 0.21258944249 -1.8032007202e-18 
0.14428258709 0.19511367824 -8.2189757913e-17 -5.4195416907e-19 0.23603412469 0.15523777198 -5.7743167968e-19 0.24338465929 -1.0668056606e-18 
0.25279430914 0.29139200893 0.25914092098 0.28422324267 0.14051955513 0.24629703357 -1.1500773816e-17 -6.6993159807e-17 0.1417509787 
-2.004790336e-18 0.14206659789 0.35410391147 0.27319604704 0.24678478009 0.34871990188 0.26223253651 -2.9123790149e-16 0.29653749431 
0.27792892541 0.13172315849 0.22644088811 0.1240502172 0.1759096125 0.17962887119 -1.1612442989e-18 0.17418138886 0.28514391918 
0.27972210815 0.19114481012 0.28333987328 0.29980661533 0.28125 0.28125027324 0.13125189201 0.13125 0.28125 
0.13125 0.1312481164 0.13137340258 4.9900492238e-19 8.1142232998e-17 0.2081772333 -4.2314157181e-18 -4.8413560317e-19 0.20449155324 
0.11896666166 -1.3094217135e-16 0.2954027489 0.24311371476 0.29660344484 0.24728298372 0.23246753592 0.29734983772 0.28097085626 
0.21881196801 0.21567880805 0.12405000791 0.20485224522 0.11914832003 0.21960114927 -1.3100148953e-16 -5.4902036439e-20 8.3747601278e-17 
-4.7394483275e-19 7.98807037e-17 -3.1979833251e-18 -4.8207898411e-19 -2.4973210085e-18 -8.4421383979e-17 -5.4787906898e-19 -4.1351248105e-18 -5.9330903467e-19 
-1.0181175462e-17 -2.6657967013e-16 6.7848589767e-19 8.7231625023e-17 -1.9579132128e-18 -8.1517126181e-17 -5.648670213e-19 -8.3570436054e-17 0.24864392738 
0.11520957315 0.22996387846 0.12287049843 0.29501625309 0.10725880316 0.28730007511 0.11899166991 0.29469258041 0.2623159982 
0.16608760896 0.27817001299 0.27779981681 0.37373622758 0.38044760327 0.29931601865 0.28514363103 0.24918110841 0.10080236753 
0.28817489055 0.25553296157 0.28433478322 0.28659979784 0.23645907431 0.29786263649 0.2868817477 0.23212335781 0.29495206249 
0.26859064311 0.29703002517 0.10303770235 0.25861745371 0.21023682689 0.21666242891 0.29531350874 0.11366673534 0.096616279404 
0.29404879986 0.22004529849 0.28987533289 0.2649647198 0.34720652491 0.38469812407 0.21952763317 0.10614805787 0.048590991217 
0.24108985777 0.29968664315 0.22170766644 0.1984411909 0.27988750029 0.21415583062 0.25510501592 0.21397339559 0.32881197952 
0.29473626119 0.18595195704 0.25753185611 0.10053976462 0.22759505601 0.19764683678 0.11010742091 0.29846764272 0.18168268349 
0.23672393728 0.2241718764 0.12524109661 0.24068925734 0.08912046255 0.29911132677 0.29459880455 0.2133191694 0.23109907218 
0.28383014419 0.21613344119 0.099421826665 0.11098162136 0.21382068932 0.085860286386 0.2672143907 0.10992940201 0.18281346248 
0.23940940341 0.19018882229 0.096324845665 0.12375944372 0.11271320663 0.1574538887 0.30000599886 0.23351605038 0.17219628323 
0.27546419131 0.32428001125 0.1990719838 0.23806740262 0.24693055115 0.25968808475 0.28003003348 0.077283424939 0.10560008802 
0.18515301554 0.10429882523 0.26446341349 0.28987485012 0.077442016303 0.25495550424 0.29034595208 0.12988823116 0.19268519239 
0.1751431211 0.076171814913 0.2661640195 0.26867222494 0.20126318103 0.095094065296 0.25112423515 0.26822511838 0.17645037455 
0.16204263664 0.17407255529 0.45521922438 0.12255261414 0.21239525328 0.1762154128 0.21561780188 0.29559735304 0.26021384829 
0.26372831589 0.24673034565 0.23206951722 0.28789729267 0.18785633049 0.075115592544 0.29593553229 0.25445380683 0.25391724703 
0.10233282107 0.26067949603 0.14303759202 0.13695931999 0.17748713015 0.28426094946 0.29592037218 0.069552020149 0.22256269077 
0.28080743621 0.23059132973 0.2394164451 0.27242897992 0.232496505 0.088875830554 0.29647013566 0.29286920698 0.27433233385 
0.17596292123 0.074766001326 0.20182851374 0.068739105248 0.08063894841 0.18079764845 0.17616429659 0.19906503355 0.16595862075 
0.063863339294 0.1660976021 0.066384743215 0.066292036439 0.17104972614 0.19472010152 0.06561607088 0.063828816618 0.16806545586 
0.063064341907 0.2578125562 0.27520641476 0.2920162316 0.28337418693 0.26442346493 0.26119687868 0.26004607754 0.28697288533 
0.214589182 0.17162049946 0.24809326322 0.29095178007 0.024567917059 0.25781244215 0.29778499452 0.27296692161 0.29626048646 
0.27062081088 0.19446313007 -6.1575346191e-19 0.29282426752 -5.4654871651e-19 0.32266517063 0.23060204047 0.17726471855 0.25539576258 
0.17358282961 -8.6725679944e-18 0.29715554614 0.2707013358 0.35104452653 0.23472697787 0.087983823796 0.27010635944 0.20451522574 
0.19853702524 0.18668388269 0.29601818053 0.29418657927 0.19222890965 0.22251171724 0.26001442726 0.2662549719 -3.1807138723e-18 
0.18266126285 7.7223907571e-17 0.1828125 0.29172431563 0.29280910078 0.26285032599 0.24714639687 0.23975167969 0.1922639087 
0.12245275221 0.24087586804 0.41382905631 0.3877271786 0.29032198315 0.073436154084 0.33138033052 0.087477103528 0.25247598039 
0.059503033868 0.091196578723 -8.2104851742e-17 0.35543800809 0.28484642134 0.2578125 0.28170233798 0.28282590783 0.15850390317 
0.16972386253 0.17677841529 0.22892807723 0.40074098416 0.29383115903 0.24118406647 0.18942949891 0.085231436736 0.18121076817 
0.24629773612 0.27026938084 0.29608446039 0.19986033062 0.24678640934 0.099028724295 0.28767932491 -7.7446318441e-17 -9.1303758679e-19 
0.17061783457 0.29840363988 0.07898376966 0.24422578642 0.29489411955 0.17180500283 0.2407150718 0.29133535384 -1.6866062081e-16 
0.0703587987 0.27349563559 0.27239484459 0.1828125 0.26877290699 0.29399920091 0.081734141758 0.24438517039 0.20867337516 
0.0703125 3.0172962972e-18 0.081643873209 0.070314484926 0.30563830534 0.13419754952 0.26805866179 0.280914298 0.22337324055 
0.2719172671 0.25193737516 0.26187800317 0.26053754158 0.27855272953 0.072038585208 0.27070470242 0.16721325326 0.21789019924 
0.079133312915 0.20253465759 0.22700607521 0.17252737133 0.23887323363 0.11357104394 0.24846828533 -6.1600972597e-19 0.079583081869 
0.29549441016 0.29989892347 0.28030690657 0.077280109276 0.18234802643 0.29999061864 0.15709132194 0.07613595417 0.28471581514 
0.077507892332 0.28899664385 -6.133681801e-18 1.4609652313e-16 0.13807017692 0.21332883903 0.36998323797 0.30447792171 0.29811647939 
0.27819381656 0.23002839487 0.25483023015 -1.3326892376e-18 0.28105333714 0.30806467879 0.22963377586 0.2530410954 0.38652329415 
0.2237457337 0.28223182533 0.29009191574 0.15418473926 0.065875446311 0.28291408371 0.16954819213 0.33651475609 0.294383078 
0.25136941945 -1.8813650911e-18 0.25327908088 0.22697357455 -4.0115886428e-19 0.1674312213 0.29981152686 0.0703125 -1.2849908057e-18 
0.092085083035 0.15582737829 0.29278850357 0.064557335445 0.078458953795 -1.281532801e-18 0.076137927367 0.25242083778 0.28957989269 
0.3425712369 0.24432304651 0.084503318238 0.070155503618 0.26033720622 0.070310519558 -4.8348931083e-19 0.19867143571 0.27940622302 
0.28317969151 0.13906043254 0.28188331933 0.23129528301 0.18843125644 0.1364322887 -4.4848834553e-17 0.28899978794 -2.4313430274e-18 
0.19057261259 0.21893912078 0.2953125 0.1588776133 0.27695248149 0.28566742385 0.25612575967 0.2307408233 0.12544453718 
0.068730138976 0.29992444475 0.25993781087 -8.7061200032e-17 0.2578125 0.18281370981 0.18281129678 0.2953125 0.29531227731 
0.29531271382 0.26423784359 0.16396558906 -8.2554937127e-19 0.12108347392 0.21466937086 0.24245380082 -2.3615133734e-18 0.080211472418 
0.29956849095 0.27313377802 0.27042965544 -1.280578426e-18 0.12209592222 0.17957559486 0.29652911786 0.29985315863 0.29962382416 
0.23585318355 0.26693496061 0.065432942717 -3.0788821971e-18 0.27806970482 1.3451364067e-18 -7.4717917817e-17 1.0150252371e-16 6.7371973716e-17 
-3.3165549301e-16 3.1994701618e-18 0.17473862902 0.19912443922 0.21948221286 0.26580415407 -1.928741111e-18 0.13559099615 0.069224762964 
0.41673105028 0.28968257089 0.29604572943 0.26472407385 0.21676973807 0.25760798949 0.28984889027 0.19499301178 0.26442584633 
0.29645813702 0.11247334025 0.28825211609 0.29296459668 0.25417484107 -5.0444092051e-18 0.22149151408 0.44366368111 0.389264934 
0.26928420715 0.16814103293 0.072696303861 0.24154246199 0.10180565019 0.28349372367 0.18500536026 0.23229029743 0.28451527634 
0.11208351016 0.20902496656 0.079287450333 0.19293883451 0.24257696447 0.29768065814 0.29994966131 0.068935806385 0.13140452443 
0.25466584569 -5.534295113e-19 0.29996119065 0.28454847784 0.22617399738 0.18558050794 0.15118691273 -8.5060350531e-19 0.29947579176 
0.2813249705 0.23723402272 0.22809766081 0.16040042094 6.4885238389e-18 0.24417129778 0.24236122266 0.23927949459 0.15287413886 
0.28375408678 0.29429917211 0.27873762982 0.21307074576 0.17416264073 0.064702059337 0.12713332577 0.18987993757 0.33025567996 
0.12793313953 0.22325261185 0.25017546662 0.11858801558 0.29772061886 0.28941042275 0.22327567427 0.17856701372 0.22046149672 
0.17358036388 0.27251143377 0.1872959095 0.2086471251 0.23431445671 0.20340396421 0.25120292744 0.10343603943 0.13739569508 
0.18024566156 0.012084493642 0.16699721179 0.11986703329 0.067168158774 0.063868780738 0.063370118198 -3.1552542837e-16 -5.686180719e-20 
-7.7983360798e-17 7.8492277974e-17 -4.709739917e-19 -1.9093413333e-18 0.066221302703 -1.4282746647e-18 -7.9933478382e-17 -3.917258444e-18 0.07314590669 
-2.0055047017e-18 -5.3194386483e-19 1.2899440308e-18 -5.405447584e-19 -5.4785604187e-19 -5.572761708e-19 8.31240807e-17 -1.4686160888e-17 -6.2091063667e-19 
-1.2230836114e-18 8.5036712718e-17 4.7998323949e-18 -7.0982597813e-19 4.1678062942e-18 -3.2752850841e-18 -1.4335996676e-18 6.4047209855e-19 -2.2577816035e-18 
7.9544444319e-17 -6.4557860017e-19 -1.2676895399e-18 -5.1691058027e-19 -2.7397689681e-18 -1.7745728408e-18 -7.8871116285e-19 -1.4035394127e-18 0.16545532139 
0.23307853409 0.12052757302 0.16760849841 0.12589674274 0.1751159835 0.12410051795 0.33217195555 0.20219153399 0.22197201133 
0.21232433251 0.20556097498 0.29895882885 0.17437109923 0.15547492729 0.027090891382 0.19381116559 0.14981938161 0.2998100166 
0.11924496712 0.2898141422 0.27511982779 0.28653761296 0.23416282321 0.15716550871 0.062233838157 0.22473569822 0.12553309693 
0.21401138642 0.19946043503 0.20421952455 0.17692972826 0.21701676723 0.28887038012 0.27149686513 0.28600582565 0.29464718785 
0.12233953386 0.30001492113 0.20394907486 0.063451931955 0.11395675904 0.12119442171 0.2656621127 0.18401890303 0.24061910353 
0.2004944668 0.22399803985 0.27361382544 0.057003360714 0.19543857641 0.29882777494 0.25380995308 0.28061735976 0.2922497018 
0.25255098739 0.13076144426 0.2174524016 0.19097017999 0.22653651892 0.44059973944 0.28995627747 0.22354187055 0.18614966609 
0.25649138006 0.29971426012 0.3843010042 0.20491907898 0.21726998002 0.054823765357 0.29879484866 0.29611285535 0.28562243625 
0.17301414211 0.27501260659 0.14400683464 0.28544732094 0.0670567711 0.2060303266 0.24031067509 0.18018550545 0.11215664236 
0.28148462239 0.2924965046 0.29879792594 0.29451817167 0.29510868897 0.055410153238 0.063392695221 0.29342720572 0.28378530791 
0.29961616472 0.24506274751 0.14686003679 0.098136211222 0.15744242245 0.15626870063 0.27265386672 0.1487300427 0.058988168116 
0.26904654349 0.055633476912 0.23913669613 0.28456598637 0.27226281305 0.28283408956 0.37145388627 0.17857707562 0.094498122358 
0.28094978733 0.087644624555 0.078636271193 0.17594601821 0.13227628987 0.24954025127 0.1434544059 0.19419139775 0.17743337215 
0.1554370142 0.26509260219 0.29322287235 0.19525523029 0.18404932474 0.26204763623 0.25924102066 0.25433819313 0.29528947113 
0.17055262167 0.061626693503 0.2810297932 0.27739382906 0.26722520086 0.36491562806 0.13764350528 0.28106019271 0.29639315979 
0.11798759685 0.276906784 0.25828295047 0.29521982234 0.293332275 0.2998965601 0.3093796039 0.29009496488 0.21094329099 
0.11679968067 0.2756186838 0.13793074073 -4.8975966525e-19 0.26669307717 0.23739217495 0.053643112813 0.26019165058 0.29765104101 
0.24379743725 0.12604434609 0.13047142454 0.25558593204 0.20257073379 0.34574266253 0.31310764226 0.29976739214 0.3600085949 
0.13303743143 0.050492953525 0.2816733897 0.10323154619 0.18246962226 0.16328526367 0.12724489938 0.28619431664 0.29904314399 
0.24969645021 0.18320649389 0.29882843294 0.28687193439 0.28695560969 0.21524342241 0.29171269526 0.27889649879 0.26524165225 
0.24805640441 0.28515477795 0.11985234194 0.13033034263 0.058330588629 0.24966832055 0.22191930453 0.21242803365 0.2224265019 
0.19719874017 0.060403722819 0.29676607069 0.28827905241 0.29524626147 0.20820262925 0.15063137651 0.33189303429 0.24931258289 
0.18502120888 0.21686059735 0.27013308066 0.17609284876 0.24208189666 0.061292442073 0.063450578749 0.14628472298 0.13243863466 
0.26187351868 0.31858192556 0.29016265574 0.21974409823 0.053548986934 0.31562716714 0.19011515855 0.23419420651 0.1972367826 
0.06146290543 0.33108889996 0.24443569689 0.25425314074 0.27095768408 0.27039675657 0.12865128623 0.3172335014 0.27196177013 
0.38121055182 0.30382345815 0.41562336738 0.23141224835 0.20205890927 0.21221206579 0.060302185465 0.21609091053 0.19934791601 
0.19850227565 0.2139582926 0.25428814015 0.29189742345 0.066433186997 0.11715159755 0.22653986039 0.12672322094 0.17437607909 
0.21584075848 0.24747822306 0.3844391114 0.19024970778 0.061954933944 0.046518840691 0.13606084751 0.12766374648 0.26968884885 
0.28250849377 0.25912567348 0.22657350838 0.24678410665 0.092345583163 0.19033577497 0.22031503339 0.12667454447 0.28363646357 
0.049868050813 0.26006158549 0.23077810907 0.052640872533 0.14108246422 0.056585445235 0.19456708952 0.1933952148 0.27398705216 
0.27725185727 0.2994634931 0.22895162817 0.234651609 0.21659707682 0.29947184279 0.25549955291 0.28878212432 0.18162903717 
0.15879391434 0.25296698899 0.27560667601 0.28927538689 0.26961800215 0.28602869568 0.29883627489 0.28652422546 0.18773235971 
0.24376695638 0.1448821961 0.23737281942 0.27277819049 0.25649041546 0.26528824235 0.2690423662 0.12977192991 0.11924903309 
0.061543041739 0.24746039514 0.26445748959 0.27787892145 0.13085407637 0.13158726654 0.14333675436 0.21241692382 0.28930910983 
0.18608157894 0.30979164953 0.044741326591 0.018050543358 0.27441649084 0.24559654825 0.29772946678 0.13539512186 0.19487933307 
0.24252333627 0.093839377043 0.05114835217 0.23729203356 0.20820528227 0.2297465679 0.28629041083 0.20364308903 0.25792357616 
0.2762565752 0.13836780088 0.26969214194 0.16955505506 0.23996071384 0.18021253405 0.27072239052 0.16074754438 0.21552118023 
0.29791457782 0.39538401527 0.3976507594 0.15767819718 0.28750657455 0.10577036674 0.047706604824 0.093500461516 0.04543444465 
0.1207009686 0.24299920483 0.1153063389 0.094937846572 0.29733068519 0.29759884158 0.23553795711 0.27085499613 0.24729186716 
0.054999486775 0.2985532044 0.19290831872 0.21118993603 0.42745160801 0.28659945991 0.15260338527 0.14525394518 0.15616414404 
0.2642140801 0.23151134939 0.30248180398 0.2756738935 0.28121405671 0.26248041675 0.046540470666 0.11540709235 0.34488979693 
0.14261750063 0.17661135323 0.076211791425 0.16673652425 0.28458559844 0.13392962814 0.06645514585 0.060983443016 0.065475391067 
0.042919471135 0.083676470267 0.21998955659 0.29959897371 0.22317157066 0.27270216828 0.078664510055 0.22048693139 0.2090587771 
0.27677082658 0.26929809211 0.23696027214 0.29942171482 0.29864969307 0.1062933315 0.30112353145 0.36274710945 0.30056811519 
0.11548925479 -1.1479053312e-17 7.4357546072e-17 0.44394123007 0.23942457157 0.29898668229 0.26364871583 0.25770869386 0.29738311373 
0.04275242156 0.15642211058 0.11433185752 0.24677973892 0.2186574736 0.22381956012 0.25826008531 0.3330362628 0.29493022596 
0.29746118306 0.28428290177 0.26977155678 0.26897199813 0.27212272846 0.43043790716 0.43691705849 0.43451208629 0.33620952612 
0.29924476081 0.29524818837 0.28975118589 0.28543491912 0.046740634515 0.28611798851 0.20078243645 0.2286150058 0.23010421365 
0.040076897774 0.040078581691 0.21954153229 0.12522285529 0.28738854041 0.10155270049 0.21941677333 0.15204596248 0.18772940417 
0.29343572732 0.23746186072 0.18883745271 0.18095362732 0.19998205179 0.18394367601 0.12403122064 0.16413469115 0.12418645713 
0.36940979827 0.10634050049 0.039477188257 0.039478847534 0.22891153352 0.073274206612 0.16789510128 0.25230037668 0.25285266778 
0.1467096559 0.27363944725 0.20341217928 0.19902984949 0.26761060699 0.25718992599 0.31984328171 0.049329958706 0.20909582927 
0.19112116684 0.24199955819 0.046002305041 0.21834516214 0.10419367534 0.14537808315 0.27756936455 0.2987469449 0.32129896866 
0.072433070603 0.25182863078 0.27448098004 0.27159150189 0.27608039168 0.15272120655 0.29902416545 0.1536021819 0.21655954745 
0.10642172748 0.092438162806 0.27047492684 0.085668129098 0.23309588803 0.086154454547 0.21628052896 0.29635445967 0.079017923003 
0.040702958507 0.27783129395 0.2288235705 0.2558005132 0.14452046262 0.14751886175 0.13045310584 0.26408012469 0.22363128092 
0.25786882432 0.24597795703 0.27679041233 0.31300948766 0.24214268538 0.11072519637 0.27819603693 0.12777386704 0.095207899667 
0.24247722901 0.19580878921 0.19002637528 0.27039970521 0.26785835502 0.10918061101 0.23179996086 0.29167399184 0.29296621024 
0.2948459646 0.27656311321 0.21809116333 0.05399300341 0.1793296238 0.25965531198 0.24261869545 0.16642143014 0.20073652359 
0.040155980082 0.047773068708 0.26745252427 0.28127532193 0.29152001908 0.29238563011 0.14904085414 0.09945762423 0.19305450263 
0.22891758445 0.26253602329 0.2392521611 0.09912679982 0.04955274266 0.14960399207 0.094799329192 0.15751857479 0.22986741466 
0.19987232951 0.21395397829 0.2159481218 0.2205771993 0.23299347257 0.094129137351 0.24476654127 0.23880773562 0.26364781305 
0.26944197008 0.12006502445 0.31181009346 0.10474683355 0.14993775924 0.28646006175 0.046289237333 0.14536146906 0.305296386 
0.24639244925 0.095272360152 0.19865333129 0.22043724965 0.039878799054 0.28896413243 0.2790566827 0.26918772026 0.36205737164 
0.29514433339 0.10076892467 0.39033419957 0.035760174493 0.26781144955 0.16569847374 0.29886616136 0.29871813503 0.051988173473 
0.0082760526131 0.037156246905 0.16946576487 0.29828684523 0.050048672812 0.10228750592 0.039051913502 0.2922019304 0.29753484489 